# i3 config file (v4)
#
# Modified by Michael Song

# Sets the mod key to the windows key
set $mod Mod4

# -----ADDITIONAL STUFF BY MICHAEL-----
# Removes title bars
new_window 1pixel

# Starts composite manager
exec --no-startup-id compton 

# Sets the screen dpi (125%)
exec --no-startup-id $HOME/.config/i3/set_dpi.sh

# Starts notification manager
exec --no-startup-id dunst -config $HOME/.config/i3/dunstrc

# Sets Wallpaper using nitrogen
exec --no-startup-id nitrogen --restore

# Forces sound to be muted
exec --no-startup-id pactl set-sink-mute 1 1

# Binds lockscreen key
# "lock" is a script which takes a screenshot of the current workspace and invokes 
# i3 lock with a gaussian blur applied to it, more details here: 
# http://plankenau.com/blog/post-10/gaussianlock
bindsym $mod+o exec $HOME/.config/i3/lock.sh

# Binds printscreen key (mod+Delete as the type cover has no print screen)
# I use spectacle as my screen capture tool of choice
bindsym $mod+Delete exec spectacle

# Binds chrome browser
bindsym $mod+c exec google-chrome-stable

# Binds audio interface
bindsym $mod+F4 exec pavucontrol

# Pulse Audio controls (Surface keyboard)
bindsym $mod+F6 exec --no-startup-id pactl set-sink-volume 1 +10% # increase sound
bindsym $mod+F5 exec --no-startup-id pactl set-sink-volume 1 -10% # decrease sound
bindsym $mod+F3 exec --no-startup-id pactl set-sink-mute 1 toggle # mute sound

# Pulse Audio controls (Desktop keyboard)
bindsym XF86AudioRaiseVolume exec --no-startup-id pactl set-sink-volume 1 +10% #increase sound
bindsym XF86AudioLowerVolume exec --no-startup-id pactl set-sink-volume 1 -10% #decrease sound
bindsym XF86AudioMute exec --no-startup-id pactl set-sink-mute 1 toggle # mute sound

# Sreen brightness controls
bindsym $mod+F1 exec xbacklight -dec 20 # decrease screen brightness
bindsym $mod+F2 exec xbacklight -inc 20 # increase screen brightness

# Enable title bar for certain applications
for_window [class="Wine"] border normal

# Starts lemonbar
exec --no-startup-id $HOME/.config/lemonbar/lbar.sh
# -----END MICHAEL'S STUFF-----

# Font for window titles. Will also be used by the bar unless a different font
# is used in the bar {} block below.
font pango:roboto regular 14

# Use Mouse+$mod to drag floating windows to their wanted position
floating_modifier $mod

# start a terminal
bindsym $mod+Return exec termite -e fish

# kill focused window
bindsym $mod+Shift+q kill

# start rofi (a program launcher)
bindsym $mod+d exec rofi -show run -location 2

# change focus
bindsym $mod+h focus left
bindsym $mod+j focus down
bindsym $mod+k focus up
bindsym $mod+l focus right

# alternatively, you can use the cursor keys:
bindsym $mod+Left focus left
bindsym $mod+Down focus down
bindsym $mod+Up focus up
bindsym $mod+Right focus right

# move focused window
bindsym $mod+Shift+j move left
bindsym $mod+Shift+k move down
bindsym $mod+Shift+l move up
bindsym $mod+Shift+semicolon move right

# alternatively, you can use the cursor keys:
bindsym $mod+Shift+Left move left
bindsym $mod+Shift+Down move down
bindsym $mod+Shift+Up move up
bindsym $mod+Shift+Right move right

# split in horizontal orientation
bindsym $mod+g split h

# split in vertical orientation
bindsym $mod+v split v

# enter fullscreen mode for the focused container
bindsym $mod+f fullscreen toggle

# change container layout (stacked, tabbed, toggle split)
bindsym $mod+s layout stacking
bindsym $mod+w layout tabbed
bindsym $mod+e layout toggle split

# toggle tiling / floating
bindsym $mod+Shift+space floating toggle

# change focus between tiling / floating windows
bindsym $mod+space focus mode_toggle

# focus the parent container
bindsym $mod+a focus parent

# focus the child container
#bindsym $mod+d focus child

# switch to workspace
bindsym $mod+1 workspace 1
bindsym $mod+2 workspace 2
bindsym $mod+3 workspace 3
bindsym $mod+4 workspace 4
bindsym $mod+5 workspace 5
bindsym $mod+6 workspace 6
bindsym $mod+7 workspace 7
bindsym $mod+8 workspace 8
bindsym $mod+9 workspace 9
bindsym $mod+0 workspace 10

# move focused container to workspace
bindsym $mod+Shift+1 move container to workspace 1
bindsym $mod+Shift+2 move container to workspace 2
bindsym $mod+Shift+3 move container to workspace 3
bindsym $mod+Shift+4 move container to workspace 4
bindsym $mod+Shift+5 move container to workspace 5
bindsym $mod+Shift+6 move container to workspace 6
bindsym $mod+Shift+7 move container to workspace 7
bindsym $mod+Shift+8 move container to workspace 8
bindsym $mod+Shift+9 move container to workspace 9
bindsym $mod+Shift+0 move container to workspace 10

# reload the configuration file
bindsym $mod+Shift+c reload
# restart i3 inplace (preserves your layout/session, can be used to upgrade i3)
bindsym $mod+Shift+r restart
# exit i3 (logs you out of your X session)
bindsym $mod+Shift+e exec "i3-nagbar -t warning -m 'You pressed the exit shortcut. Do you really want to exit i3? This will end your X session.' -b 'Yes, exit i3' 'i3-msg exit'"

# resize window (you can also use the mouse for that)
mode "resize" {
# These bindings trigger as soon as you enter the resize mode

# Pressing left will shrink the window’s width.
# Pressing right will grow the window’s width.
# Pressing up will shrink the window’s height.
# Pressing down will grow the window’s height.
    bindsym j resize shrink width 10 px or 10 ppt
        bindsym k resize grow height 10 px or 10 ppt
        bindsym l resize shrink height 10 px or 10 ppt
        bindsym semicolon resize grow width 10 px or 10 ppt

# same bindings, but for the arrow keys
        bindsym Left resize shrink width 10 px or 10 ppt
        bindsym Down resize grow height 10 px or 10 ppt
        bindsym Up resize shrink height 10 px or 10 ppt
        bindsym Right resize grow width 10 px or 10 ppt

# back to normal: Enter or Escape
        bindsym Return mode "default"
        bindsym Escape mode "default"
}

bindsym $mod+r mode "resize"
